// This file is part of aldFoam
// Copyright 2019 Argonne UChicago LLC

FoamFile
{
    version     2.0;
    format      ascii;
    class       volScalarField;
    location    "19";
    object      p;
}

dimensions      [0 2 -2 0 0 0 0];

internalField   nonuniform List<scalar>
8000
(
140.94
129.133
123.26
120.68
119.247
118.349
117.747
117.304
116.942
116.623
116.324
116.035
115.749
115.464
115.177
114.889
114.599
114.307
114.013
113.718
113.422
113.125
112.828
112.53
112.232
111.933
111.635
111.336
111.037
110.738
110.439
110.141
109.842
109.543
109.244
108.945
108.646
108.347
108.048
107.749
107.45
107.151
106.852
106.554
106.255
105.956
105.657
105.358
105.059
104.76
104.461
104.162
103.863
103.564
103.265
102.966
102.668
102.369
102.07
101.771
101.472
101.173
100.874
100.575
100.276
99.9772
99.6783
99.3794
99.0805
98.7816
98.4826
98.1837
97.8848
97.5859
97.287
96.9881
96.6892
96.3902
96.0913
95.7924
95.4935
95.1946
94.8957
94.5968
94.2979
93.9989
93.7
93.4011
93.1022
92.8033
92.5044
92.2055
91.9066
91.6077
91.3088
91.0099
90.711
90.4121
90.1131
89.8142
89.5153
89.2164
88.9175
88.6186
88.3197
88.0208
87.7219
87.423
87.1241
86.8252
86.5263
86.2274
85.9285
85.6296
85.3307
85.0318
84.7329
84.434
84.1351
83.8363
83.5374
83.2385
82.9396
82.6407
82.3418
82.0429
81.744
81.4451
81.1462
80.8473
80.5484
80.2495
79.9506
79.6518
79.3529
79.054
78.7551
78.4562
78.1573
77.8584
77.5595
77.2606
76.9618
76.6629
76.364
76.0651
75.7662
75.4673
75.1685
74.8696
74.5707
74.2718
73.9729
73.674
73.3752
73.0763
72.7774
72.4785
72.1796
71.8808
71.5819
71.283
70.9841
70.6852
70.3864
70.0875
69.7886
69.4897
69.1908
68.892
68.5931
68.2942
67.9953
67.6965
67.3976
67.0987
66.7998
66.5009
66.2021
65.9032
65.6043
65.3054
65.0065
64.7077
64.4088
64.1099
63.811
63.5122
63.2133
62.9144
62.6155
62.3166
62.0178
61.7189
61.42
61.1211
60.8222
60.5234
60.2245
59.9256
59.6267
59.3278
59.029
58.7301
58.4312
58.1323
57.8334
57.5346
57.2357
56.9368
56.6379
56.339
56.0402
55.7413
55.4424
55.1435
54.8446
54.5458
54.2469
53.948
53.6491
53.3502
53.0514
52.7525
52.4536
52.1547
51.8558
51.557
51.2581
50.9592
50.6603
50.3614
50.0626
49.7637
49.4648
49.1659
48.8671
48.5682
48.2693
47.9704
47.6715
47.3727
47.0738
46.7749
46.476
46.1771
45.8783
45.5794
45.2805
44.9816
44.6827
44.3839
44.085
43.7861
43.4872
43.1883
42.8895
42.5906
42.2917
41.9928
41.6939
41.3951
41.0962
40.7973
40.4984
40.1995
39.9007
39.6018
39.3029
39.004
38.7051
38.4063
38.1074
37.8085
37.5096
37.2108
36.9119
36.613
36.3141
36.0152
35.7164
35.4175
35.1186
34.8197
34.5208
34.222
33.9231
33.6242
33.3253
33.0264
32.7275
32.4287
32.1298
31.8309
31.532
31.2331
30.9342
30.6354
30.3365
30.0376
29.7387
29.4398
29.1409
28.842
28.5432
28.2443
27.9454
27.6465
27.3476
27.0487
26.7498
26.4509
26.1521
25.8532
25.5543
25.2554
24.9565
24.6576
24.3587
24.0598
23.7609
23.462
23.1632
22.8643
22.5654
22.2665
21.9676
21.6687
21.3698
21.0709
20.772
20.4731
20.1742
19.8754
19.5765
19.2776
18.9787
18.6798
18.3809
18.082
17.7831
17.4842
17.1853
16.8865
16.5876
16.2887
15.9898
15.6909
15.392
15.0931
14.7942
14.4953
14.1965
13.8976
13.5987
13.2998
13.0009
12.702
12.4031
12.1042
11.8054
11.5065
11.2076
10.9087
10.6098
10.3109
10.0121
9.71317
9.41429
9.11541
8.81653
8.51765
8.21876
7.91988
7.621
7.32212
7.02324
6.72436
6.42548
6.1266
5.82772
5.52883
5.22995
4.93106
4.63218
4.33329
4.03439
3.7355
3.4366
3.13769
2.83877
2.53983
2.24091
1.942
1.6431
1.34413
1.04511
0.746234
0.447328
0.148548
130.156
125.69
122.585
120.702
119.467
118.601
117.966
117.474
117.069
116.714
116.388
116.08
115.78
115.485
115.191
114.898
114.604
114.31
114.015
113.719
113.423
113.125
112.828
112.53
112.232
111.933
111.635
111.336
111.037
110.738
110.439
110.141
109.842
109.543
109.244
108.945
108.646
108.347
108.048
107.749
107.45
107.151
106.852
106.554
106.255
105.956
105.657
105.358
105.059
104.76
104.461
104.162
103.863
103.564
103.265
102.966
102.668
102.369
102.07
101.771
101.472
101.173
100.874
100.575
100.276
99.9772
99.6783
99.3794
99.0805
98.7816
98.4827
98.1837
97.8848
97.5859
97.287
96.9881
96.6892
96.3902
96.0913
95.7924
95.4935
95.1946
94.8957
94.5968
94.2979
93.9989
93.7
93.4011
93.1022
92.8033
92.5044
92.2055
91.9066
91.6077
91.3088
91.0099
90.711
90.4121
90.1132
89.8143
89.5153
89.2164
88.9175
88.6186
88.3197
88.0208
87.7219
87.423
87.1241
86.8252
86.5263
86.2274
85.9285
85.6296
85.3307
85.0318
84.7329
84.4341
84.1352
83.8363
83.5374
83.2385
82.9396
82.6407
82.3418
82.0429
81.744
81.4451
81.1462
80.8473
80.5484
80.2495
79.9507
79.6518
79.3529
79.054
78.7551
78.4562
78.1573
77.8584
77.5595
77.2607
76.9618
76.6629
76.364
76.0651
75.7662
75.4673
75.1685
74.8696
74.5707
74.2718
73.9729
73.674
73.3752
73.0763
72.7774
72.4785
72.1796
71.8808
71.5819
71.283
70.9841
70.6852
70.3864
70.0875
69.7886
69.4897
69.1908
68.892
68.5931
68.2942
67.9953
67.6965
67.3976
67.0987
66.7998
66.5009
66.2021
65.9032
65.6043
65.3054
65.0065
64.7077
64.4088
64.1099
63.811
63.5122
63.2133
62.9144
62.6155
62.3166
62.0178
61.7189
61.42
61.1211
60.8222
60.5234
60.2245
59.9256
59.6267
59.3278
59.029
58.7301
58.4312
58.1323
57.8334
57.5346
57.2357
56.9368
56.6379
56.339
56.0402
55.7413
55.4424
55.1435
54.8446
54.5458
54.2469
53.948
53.6491
53.3502
53.0514
52.7525
52.4536
52.1547
51.8558
51.557
51.2581
50.9592
50.6603
50.3614
50.0626
49.7637
49.4648
49.1659
48.8671
48.5682
48.2693
47.9704
47.6715
47.3727
47.0738
46.7749
46.476
46.1771
45.8783
45.5794
45.2805
44.9816
44.6827
44.3839
44.085
43.7861
43.4872
43.1883
42.8895
42.5906
42.2917
41.9928
41.6939
41.3951
41.0962
40.7973
40.4984
40.1995
39.9007
39.6018
39.3029
39.004
38.7051
38.4063
38.1074
37.8085
37.5096
37.2108
36.9119
36.613
36.3141
36.0152
35.7164
35.4175
35.1186
34.8197
34.5208
34.222
33.9231
33.6242
33.3253
33.0264
32.7275
32.4287
32.1298
31.8309
31.532
31.2331
30.9342
30.6354
30.3365
30.0376
29.7387
29.4398
29.1409
28.842
28.5432
28.2443
27.9454
27.6465
27.3476
27.0487
26.7498
26.4509
26.1521
25.8532
25.5543
25.2554
24.9565
24.6576
24.3587
24.0598
23.7609
23.462
23.1632
22.8643
22.5654
22.2665
21.9676
21.6687
21.3698
21.0709
20.772
20.4731
20.1742
19.8754
19.5765
19.2776
18.9787
18.6798
18.3809
18.082
17.7831
17.4842
17.1853
16.8865
16.5876
16.2887
15.9898
15.6909
15.392
15.0931
14.7942
14.4953
14.1965
13.8976
13.5987
13.2998
13.0009
12.702
12.4031
12.1042
11.8054
11.5065
11.2076
10.9087
10.6098
10.3109
10.0121
9.71317
9.41429
9.11541
8.81653
8.51765
8.21876
7.91988
7.621
7.32212
7.02324
6.72436
6.42548
6.1266
5.82771
5.52883
5.22995
4.93107
4.63218
4.3333
4.0344
3.73551
3.43661
3.13771
2.83879
2.53988
2.24097
1.94208
1.64311
1.34397
1.04514
0.746997
0.44801
0.147912
124.544
123.202
121.73
120.473
119.483
118.706
118.088
117.585
117.159
116.784
116.442
116.119
115.808
115.504
115.205
114.907
114.611
114.314
114.018
113.721
113.424
113.126
112.828
112.53
112.232
111.933
111.635
111.336
111.037
110.738
110.439
110.141
109.842
109.543
109.244
108.945
108.646
108.347
108.048
107.749
107.45
107.151
106.852
106.554
106.255
105.956
105.657
105.358
105.059
104.76
104.461
104.162
103.863
103.564
103.265
102.966
102.668
102.369
102.07
101.771
101.472
101.173
100.874
100.575
100.276
99.9772
99.6783
99.3794
99.0805
98.7816
98.4826
98.1837
97.8848
97.5859
97.287
96.9881
96.6892
96.3902
96.0913
95.7924
95.4935
95.1946
94.8957
94.5968
94.2979
93.9989
93.7
93.4011
93.1022
92.8033
92.5044
92.2055
91.9066
91.6077
91.3088
91.0099
90.711
90.4121
90.1132
89.8142
89.5153
89.2164
88.9175
88.6186
88.3197
88.0208
87.7219
87.423
87.1241
86.8252
86.5263
86.2274
85.9285
85.6296
85.3307
85.0318
84.7329
84.434
84.1352
83.8363
83.5374
83.2385
82.9396
82.6407
82.3418
82.0429
81.744
81.4451
81.1462
80.8473
80.5484
80.2495
79.9507
79.6518
79.3529
79.054
78.7551
78.4562
78.1573
77.8584
77.5595
77.2607
76.9618
76.6629
76.364
76.0651
75.7662
75.4673
75.1685
74.8696
74.5707
74.2718
73.9729
73.674
73.3752
73.0763
72.7774
72.4785
72.1796
71.8808
71.5819
71.283
70.9841
70.6852
70.3864
70.0875
69.7886
69.4897
69.1908
68.892
68.5931
68.2942
67.9953
67.6965
67.3976
67.0987
66.7998
66.5009
66.2021
65.9032
65.6043
65.3054
65.0065
64.7077
64.4088
64.1099
63.811
63.5122
63.2133
62.9144
62.6155
62.3166
62.0178
61.7189
61.42
61.1211
60.8222
60.5234
60.2245
59.9256
59.6267
59.3278
59.029
58.7301
58.4312
58.1323
57.8334
57.5346
57.2357
56.9368
56.6379
56.339
56.0402
55.7413
55.4424
55.1435
54.8446
54.5458
54.2469
53.948
53.6491
53.3502
53.0514
52.7525
52.4536
52.1547
51.8558
51.557
51.2581
50.9592
50.6603
50.3614
50.0626
49.7637
49.4648
49.1659
48.8671
48.5682
48.2693
47.9704
47.6715
47.3727
47.0738
46.7749
46.476
46.1771
45.8783
45.5794
45.2805
44.9816
44.6827
44.3839
44.085
43.7861
43.4872
43.1883
42.8895
42.5906
42.2917
41.9928
41.6939
41.3951
41.0962
40.7973
40.4984
40.1995
39.9007
39.6018
39.3029
39.004
38.7051
38.4063
38.1074
37.8085
37.5096
37.2108
36.9119
36.613
36.3141
36.0152
35.7164
35.4175
35.1186
34.8197
34.5208
34.222
33.9231
33.6242
33.3253
33.0264
32.7275
32.4287
32.1298
31.8309
31.532
31.2331
30.9342
30.6354
30.3365
30.0376
29.7387
29.4398
29.1409
28.842
28.5432
28.2443
27.9454
27.6465
27.3476
27.0487
26.7498
26.4509
26.1521
25.8532
25.5543
25.2554
24.9565
24.6576
24.3587
24.0598
23.7609
23.462
23.1632
22.8643
22.5654
22.2665
21.9676
21.6687
21.3698
21.0709
20.772
20.4731
20.1742
19.8754
19.5765
19.2776
18.9787
18.6798
18.3809
18.082
17.7831
17.4842
17.1853
16.8865
16.5876
16.2887
15.9898
15.6909
15.392
15.0931
14.7942
14.4953
14.1965
13.8976
13.5987
13.2998
13.0009
12.702
12.4031
12.1042
11.8054
11.5065
11.2076
10.9087
10.6098
10.3109
10.0121
9.71317
9.41429
9.11541
8.81653
8.51764
8.21876
7.91988
7.621
7.32212
7.02324
6.72436
6.42548
6.1266
5.82771
5.52883
5.22995
4.93107
4.63219
4.3333
4.03442
3.73553
3.43664
3.13775
2.83885
2.53996
2.2411
1.94227
1.64331
1.34412
1.04541
0.747671
0.448107
0.147816
121.924
121.502
120.795
120.003
119.272
118.634
118.085
117.612
117.196
116.821
116.474
116.145
115.829
115.52
115.217
114.916
114.617
114.319
114.021
113.723
113.425
113.127
112.829
112.53
112.232
111.933
111.635
111.336
111.037
110.738
110.439
110.14
109.842
109.543
109.244
108.945
108.646
108.347
108.048
107.749
107.45
107.151
106.852
106.554
106.255
105.956
105.657
105.358
105.059
104.76
104.461
104.162
103.863
103.564
103.265
102.966
102.668
102.369
102.07
101.771
101.472
101.173
100.874
100.575
100.276
99.9772
99.6783
99.3794
99.0805
98.7816
98.4826
98.1837
97.8848
97.5859
97.287
96.9881
96.6892
96.3902
96.0913
95.7924
95.4935
95.1946
94.8957
94.5968
94.2979
93.9989
93.7
93.4011
93.1022
92.8033
92.5044
92.2055
91.9066
91.6077
91.3088
91.0099
90.711
90.4121
90.1132
89.8142
89.5153
89.2164
88.9175
88.6186
88.3197
88.0208
87.7219
87.423
87.1241
86.8252
86.5263
86.2274
85.9285
85.6296
85.3307
85.0318
84.7329
84.434
84.1352
83.8363
83.5374
83.2385
82.9396
82.6407
82.3418
82.0429
81.744
81.4451
81.1462
80.8473
80.5484
80.2495
79.9507
79.6518
79.3529
79.054
78.7551
78.4562
78.1573
77.8584
77.5595
77.2607
76.9618
76.6629
76.364
76.0651
75.7662
75.4673
75.1685
74.8696
74.5707
74.2718
73.9729
73.674
73.3752
73.0763
72.7774
72.4785
72.1796
71.8808
71.5819
71.283
70.9841
70.6852
70.3864
70.0875
69.7886
69.4897
69.1908
68.892
68.5931
68.2942
67.9953
67.6965
67.3976
67.0987
66.7998
66.5009
66.2021
65.9032
65.6043
65.3054
65.0065
64.7077
64.4088
64.1099
63.811
63.5122
63.2133
62.9144
62.6155
62.3166
62.0178
61.7189
61.42
61.1211
60.8222
60.5234
60.2245
59.9256
59.6267
59.3278
59.029
58.7301
58.4312
58.1323
57.8334
57.5346
57.2357
56.9368
56.6379
56.339
56.0402
55.7413
55.4424
55.1435
54.8446
54.5458
54.2469
53.948
53.6491
53.3502
53.0514
52.7525
52.4536
52.1547
51.8558
51.557
51.2581
50.9592
50.6603
50.3614
50.0626
49.7637
49.4648
49.1659
48.8671
48.5682
48.2693
47.9704
47.6715
47.3727
47.0738
46.7749
46.476
46.1771
45.8783
45.5794
45.2805
44.9816
44.6827
44.3839
44.085
43.7861
43.4872
43.1883
42.8895
42.5906
42.2917
41.9928
41.6939
41.3951
41.0962
40.7973
40.4984
40.1995
39.9007
39.6018
39.3029
39.004
38.7051
38.4063
38.1074
37.8085
37.5096
37.2108
36.9119
36.613
36.3141
36.0152
35.7164
35.4175
35.1186
34.8197
34.5208
34.222
33.9231
33.6242
33.3253
33.0264
32.7275
32.4287
32.1298
31.8309
31.532
31.2331
30.9342
30.6354
30.3365
30.0376
29.7387
29.4398
29.1409
28.842
28.5432
28.2443
27.9454
27.6465
27.3476
27.0487
26.7498
26.4509
26.1521
25.8532
25.5543
25.2554
24.9565
24.6576
24.3587
24.0598
23.7609
23.462
23.1632
22.8643
22.5654
22.2665
21.9676
21.6687
21.3698
21.0709
20.772
20.4731
20.1742
19.8754
19.5765
19.2776
18.9787
18.6798
18.3809
18.082
17.7831
17.4842
17.1853
16.8865
16.5876
16.2887
15.9898
15.6909
15.392
15.0931
14.7942
14.4953
14.1965
13.8976
13.5987
13.2998
13.0009
12.702
12.4031
12.1042
11.8054
11.5065
11.2076
10.9087
10.6098
10.3109
10.0121
9.71317
9.41429
9.11541
8.81652
8.51764
8.21876
7.91988
7.621
7.32212
7.02324
6.72436
6.42548
6.12659
5.82771
5.52883
5.22995
4.93107
4.63219
4.33331
4.03442
3.73554
3.43666
3.13777
2.83888
2.54
2.24115
1.94233
1.64334
1.34411
1.0455
0.747858
0.447745
0.147745
120.341
120.287
119.973
119.494
118.978
118.478
118.012
117.586
117.195
116.832
116.489
116.161
115.843
115.532
115.226
114.923
114.623
114.323
114.024
113.725
113.426
113.128
112.829
112.531
112.232
111.933
111.635
111.336
111.037
110.738
110.439
110.141
109.842
109.543
109.244
108.945
108.646
108.347
108.048
107.749
107.45
107.151
106.852
106.554
106.255
105.956
105.657
105.358
105.059
104.76
104.461
104.162
103.863
103.564
103.265
102.966
102.668
102.369
102.07
101.771
101.472
101.173
100.874
100.575
100.276
99.9772
99.6783
99.3794
99.0805
98.7816
98.4826
98.1837
97.8848
97.5859
97.287
96.9881
96.6892
96.3902
96.0913
95.7924
95.4935
95.1946
94.8957
94.5968
94.2979
93.9989
93.7
93.4011
93.1022
92.8033
92.5044
92.2055
91.9066
91.6077
91.3088
91.0099
90.711
90.4121
90.1132
89.8142
89.5153
89.2164
88.9175
88.6186
88.3197
88.0208
87.7219
87.423
87.1241
86.8252
86.5263
86.2274
85.9285
85.6296
85.3307
85.0318
84.7329
84.434
84.1352
83.8363
83.5374
83.2385
82.9396
82.6407
82.3418
82.0429
81.744
81.4451
81.1462
80.8473
80.5484
80.2495
79.9507
79.6518
79.3529
79.054
78.7551
78.4562
78.1573
77.8584
77.5595
77.2607
76.9618
76.6629
76.364
76.0651
75.7662
75.4673
75.1685
74.8696
74.5707
74.2718
73.9729
73.674
73.3752
73.0763
72.7774
72.4785
72.1796
71.8808
71.5819
71.283
70.9841
70.6852
70.3864
70.0875
69.7886
69.4897
69.1908
68.892
68.5931
68.2942
67.9953
67.6965
67.3976
67.0987
66.7998
66.5009
66.2021
65.9032
65.6043
65.3054
65.0065
64.7077
64.4088
64.1099
63.811
63.5122
63.2133
62.9144
62.6155
62.3166
62.0178
61.7189
61.42
61.1211
60.8222
60.5234
60.2245
59.9256
59.6267
59.3278
59.029
58.7301
58.4312
58.1323
57.8334
57.5346
57.2357
56.9368
56.6379
56.339
56.0402
55.7413
55.4424
55.1435
54.8446
54.5458
54.2469
53.948
53.6491
53.3502
53.0514
52.7525
52.4536
52.1547
51.8558
51.557
51.2581
50.9592
50.6603
50.3614
50.0626
49.7637
49.4648
49.1659
48.8671
48.5682
48.2693
47.9704
47.6715
47.3727
47.0738
46.7749
46.476
46.1771
45.8783
45.5794
45.2805
44.9816
44.6827
44.3839
44.085
43.7861
43.4872
43.1883
42.8895
42.5906
42.2917
41.9928
41.6939
41.3951
41.0962
40.7973
40.4984
40.1995
39.9007
39.6018
39.3029
39.004
38.7051
38.4063
38.1074
37.8085
37.5096
37.2108
36.9119
36.613
36.3141
36.0152
35.7164
35.4175
35.1186
34.8197
34.5208
34.222
33.9231
33.6242
33.3253
33.0264
32.7275
32.4287
32.1298
31.8309
31.532
31.2331
30.9342
30.6354
30.3365
30.0376
29.7387
29.4398
29.1409
28.842
28.5432
28.2443
27.9454
27.6465
27.3476
27.0487
26.7498
26.4509
26.1521
25.8532
25.5543
25.2554
24.9565
24.6576
24.3587
24.0598
23.7609
23.462
23.1632
22.8643
22.5654
22.2665
21.9676
21.6687
21.3698
21.0709
20.772
20.4731
20.1742
19.8754
19.5765
19.2776
18.9787
18.6798
18.3809
18.082
17.7831
17.4842
17.1853
16.8865
16.5876
16.2887
15.9898
15.6909
15.392
15.0931
14.7942
14.4953
14.1965
13.8976
13.5987
13.2998
13.0009
12.702
12.4031
12.1042
11.8054
11.5065
11.2076
10.9087
10.6098
10.3109
10.0121
9.71317
9.41429
9.1154
8.81652
8.51764
8.21876
7.91988
7.621
7.32212
7.02323
6.72435
6.42547
6.12659
5.82771
5.52883
5.22995
4.93107
4.63219
4.33331
4.03443
3.73555
3.43667
3.13779
2.8389
2.54002
2.24119
1.94237
1.64336
1.34413
1.04564
0.748118
0.447344
0.147757
119.303
119.421
119.319
119.043
118.688
118.301
117.912
117.535
117.174
116.827
116.493
116.168
115.852
115.541
115.234
114.93
114.628
114.327
114.027
113.727
113.428
113.129
112.83
112.531
112.233
111.934
111.635
111.336
111.037
110.738
110.439
110.141
109.842
109.543
109.244
108.945
108.646
108.347
108.048
107.749
107.45
107.151
106.852
106.554
106.255
105.956
105.657
105.358
105.059
104.76
104.461
104.162
103.863
103.564
103.265
102.966
102.668
102.369
102.07
101.771
101.472
101.173
100.874
100.575
100.276
99.9772
99.6783
99.3794
99.0805
98.7816
98.4826
98.1837
97.8848
97.5859
97.287
96.9881
96.6892
96.3902
96.0913
95.7924
95.4935
95.1946
94.8957
94.5968
94.2979
93.9989
93.7
93.4011
93.1022
92.8033
92.5044
92.2055
91.9066
91.6077
91.3088
91.0099
90.711
90.4121
90.1132
89.8142
89.5153
89.2164
88.9175
88.6186
88.3197
88.0208
87.7219
87.423
87.1241
86.8252
86.5263
86.2274
85.9285
85.6296
85.3307
85.0318
84.7329
84.434
84.1352
83.8363
83.5374
83.2385
82.9396
82.6407
82.3418
82.0429
81.744
81.4451
81.1462
80.8473
80.5484
80.2495
79.9507
79.6518
79.3529
79.054
78.7551
78.4562
78.1573
77.8584
77.5595
77.2607
76.9618
76.6629
76.364
76.0651
75.7662
75.4673
75.1685
74.8696
74.5707
74.2718
73.9729
73.674
73.3752
73.0763
72.7774
72.4785
72.1796
71.8808
71.5819
71.283
70.9841
70.6852
70.3864
70.0875
69.7886
69.4897
69.1908
68.892
68.5931
68.2942
67.9953
67.6965
67.3976
67.0987
66.7998
66.5009
66.2021
65.9032
65.6043
65.3054
65.0065
64.7077
64.4088
64.1099
63.811
63.5122
63.2133
62.9144
62.6155
62.3166
62.0178
61.7189
61.42
61.1211
60.8222
60.5234
60.2245
59.9256
59.6267
59.3278
59.029
58.7301
58.4312
58.1323
57.8334
57.5346
57.2357
56.9368
56.6379
56.339
56.0402
55.7413
55.4424
55.1435
54.8446
54.5458
54.2469
53.948
53.6491
53.3502
53.0514
52.7525
52.4536
52.1547
51.8558
51.557
51.2581
50.9592
50.6603
50.3614
50.0626
49.7637
49.4648
49.1659
48.8671
48.5682
48.2693
47.9704
47.6715
47.3727
47.0738
46.7749
46.476
46.1771
45.8783
45.5794
45.2805
44.9816
44.6827
44.3839
44.085
43.7861
43.4872
43.1883
42.8895
42.5906
42.2917
41.9928
41.6939
41.3951
41.0962
40.7973
40.4984
40.1995
39.9007
39.6018
39.3029
39.004
38.7051
38.4063
38.1074
37.8085
37.5096
37.2108
36.9119
36.613
36.3141
36.0152
35.7164
35.4175
35.1186
34.8197
34.5208
34.222
33.9231
33.6242
33.3253
33.0264
32.7275
32.4287
32.1298
31.8309
31.532
31.2331
30.9342
30.6354
30.3365
30.0376
29.7387
29.4398
29.1409
28.842
28.5432
28.2443
27.9454
27.6465
27.3476
27.0487
26.7498
26.4509
26.1521
25.8532
25.5543
25.2554
24.9565
24.6576
24.3587
24.0598
23.7609
23.462
23.1632
22.8643
22.5654
22.2665
21.9676
21.6687
21.3698
21.0709
20.772
20.4731
20.1742
19.8754
19.5765
19.2776
18.9787
18.6798
18.3809
18.082
17.7831
17.4842
17.1853
16.8865
16.5876
16.2887
15.9898
15.6909
15.392
15.0931
14.7942
14.4953
14.1965
13.8976
13.5987
13.2998
13.0009
12.702
12.4031
12.1042
11.8054
11.5065
11.2076
10.9087
10.6098
10.3109
10.0121
9.71317
9.41428
9.1154
8.81652
8.51764
8.21876
7.91988
7.62099
7.32211
7.02323
6.72435
6.42547
6.12659
5.82771
5.52883
5.22995
4.93107
4.63219
4.33332
4.03444
3.73556
3.43669
3.13781
2.83893
2.54006
2.24123
1.94241
1.64338
1.34416
1.04585
0.748388
0.447028
0.147866
118.629
118.817
118.829
118.681
118.438
118.138
117.812
117.478
117.145
116.815
116.49
116.171
115.857
115.546
115.239
114.935
114.632
114.33
114.029
113.729
113.43
113.13
112.831
112.532
112.233
111.934
111.635
111.336
111.037
110.738
110.439
110.141
109.842
109.543
109.244
108.945
108.646
108.347
108.048
107.749
107.45
107.151
106.852
106.554
106.255
105.956
105.657
105.358
105.059
104.76
104.461
104.162
103.863
103.564
103.265
102.966
102.668
102.369
102.07
101.771
101.472
101.173
100.874
100.575
100.276
99.9772
99.6783
99.3794
99.0805
98.7816
98.4826
98.1837
97.8848
97.5859
97.287
96.9881
96.6892
96.3902
96.0913
95.7924
95.4935
95.1946
94.8957
94.5968
94.2979
93.9989
93.7
93.4011
93.1022
92.8033
92.5044
92.2055
91.9066
91.6077
91.3088
91.0099
90.711
90.4121
90.1132
89.8142
89.5153
89.2164
88.9175
88.6186
88.3197
88.0208
87.7219
87.423
87.1241
86.8252
86.5263
86.2274
85.9285
85.6296
85.3307
85.0318
84.7329
84.434
84.1352
83.8363
83.5374
83.2385
82.9396
82.6407
82.3418
82.0429
81.744
81.4451
81.1462
80.8473
80.5484
80.2495
79.9507
79.6518
79.3529
79.054
78.7551
78.4562
78.1573
77.8584
77.5595
77.2607
76.9618
76.6629
76.364
76.0651
75.7662
75.4673
75.1685
74.8696
74.5707
74.2718
73.9729
73.674
73.3752
73.0763
72.7774
72.4785
72.1796
71.8808
71.5819
71.283
70.9841
70.6852
70.3864
70.0875
69.7886
69.4897
69.1908
68.892
68.5931
68.2942
67.9953
67.6965
67.3976
67.0987
66.7998
66.5009
66.2021
65.9032
65.6043
65.3054
65.0065
64.7077
64.4088
64.1099
63.811
63.5122
63.2133
62.9144
62.6155
62.3166
62.0178
61.7189
61.42
61.1211
60.8222
60.5234
60.2245
59.9256
59.6267
59.3278
59.029
58.7301
58.4312
58.1323
57.8334
57.5346
57.2357
56.9368
56.6379
56.339
56.0402
55.7413
55.4424
55.1435
54.8446
54.5458
54.2469
53.948
53.6491
53.3502
53.0514
52.7525
52.4536
52.1547
51.8558
51.557
51.2581
50.9592
50.6603
50.3614
50.0626
49.7637
49.4648
49.1659
48.8671
48.5682
48.2693
47.9704
47.6715
47.3727
47.0738
46.7749
46.476
46.1771
45.8783
45.5794
45.2805
44.9816
44.6827
44.3839
44.085
43.7861
43.4872
43.1883
42.8895
42.5906
42.2917
41.9928
41.6939
41.3951
41.0962
40.7973
40.4984
40.1995
39.9007
39.6018
39.3029
39.004
38.7051
38.4063
38.1074
37.8085
37.5096
37.2108
36.9119
36.613
36.3141
36.0152
35.7164
35.4175
35.1186
34.8197
34.5208
34.222
33.9231
33.6242
33.3253
33.0264
32.7275
32.4287
32.1298
31.8309
31.532
31.2331
30.9342
30.6354
30.3365
30.0376
29.7387
29.4398
29.1409
28.842
28.5432
28.2443
27.9454
27.6465
27.3476
27.0487
26.7498
26.4509
26.1521
25.8532
25.5543
25.2554
24.9565
24.6576
24.3587
24.0598
23.7609
23.462
23.1632
22.8643
22.5654
22.2665
21.9676
21.6687
21.3698
21.0709
20.772
20.4731
20.1742
19.8754
19.5765
19.2776
18.9787
18.6798
18.3809
18.082
17.7831
17.4842
17.1853
16.8865
16.5876
16.2887
15.9898
15.6909
15.392
15.0931
14.7942
14.4953
14.1965
13.8976
13.5987
13.2998
13.0009
12.702
12.4031
12.1042
11.8054
11.5065
11.2076
10.9087
10.6098
10.3109
10.012
9.71317
9.41428
9.1154
8.81652
8.51764
8.21876
7.91987
7.62099
7.32211
7.02323
6.72435
6.42547
6.12659
5.82771
5.52883
5.22995
4.93108
4.6322
4.33333
4.03445
3.73558
3.4367
3.13783
2.83895
2.54009
2.24127
1.94244
1.6434
1.3442
1.046
0.748622
0.446735
0.147996
118.197
118.413
118.485
118.413
118.244
118.006
117.727
117.427
117.116
116.801
116.486
116.171
115.86
115.55
115.243
114.938
114.635
114.333
114.031
113.731
113.431
113.131
112.832
112.532
112.233
111.934
111.635
111.336
111.037
110.738
110.439
110.141
109.842
109.543
109.244
108.945
108.646
108.347
108.048
107.749
107.45
107.151
106.852
106.554
106.255
105.956
105.657
105.358
105.059
104.76
104.461
104.162
103.863
103.564
103.265
102.966
102.668
102.369
102.07
101.771
101.472
101.173
100.874
100.575
100.276
99.9772
99.6783
99.3794
99.0805
98.7816
98.4826
98.1837
97.8848
97.5859
97.287
96.9881
96.6892
96.3902
96.0913
95.7924
95.4935
95.1946
94.8957
94.5968
94.2979
93.9989
93.7
93.4011
93.1022
92.8033
92.5044
92.2055
91.9066
91.6077
91.3088
91.0099
90.711
90.4121
90.1132
89.8142
89.5153
89.2164
88.9175
88.6186
88.3197
88.0208
87.7219
87.423
87.1241
86.8252
86.5263
86.2274
85.9285
85.6296
85.3307
85.0318
84.7329
84.434
84.1352
83.8363
83.5374
83.2385
82.9396
82.6407
82.3418
82.0429
81.744
81.4451
81.1462
80.8473
80.5484
80.2495
79.9507
79.6518
79.3529
79.054
78.7551
78.4562
78.1573
77.8584
77.5595
77.2607
76.9618
76.6629
76.364
76.0651
75.7662
75.4673
75.1685
74.8696
74.5707
74.2718
73.9729
73.674
73.3752
73.0763
72.7774
72.4785
72.1796
71.8808
71.5819
71.283
70.9841
70.6852
70.3864
70.0875
69.7886
69.4897
69.1908
68.892
68.5931
68.2942
67.9953
67.6965
67.3976
67.0987
66.7998
66.5009
66.2021
65.9032
65.6043
65.3054
65.0065
64.7077
64.4088
64.1099
63.811
63.5122
63.2133
62.9144
62.6155
62.3166
62.0178
61.7189
61.42
61.1211
60.8222
60.5234
60.2245
59.9256
59.6267
59.3278
59.029
58.7301
58.4312
58.1323
57.8334
57.5346
57.2357
56.9368
56.6379
56.339
56.0402
55.7413
55.4424
55.1435
54.8446
54.5458
54.2469
53.948
53.6491
53.3502
53.0514
52.7525
52.4536
52.1547
51.8558
51.557
51.2581
50.9592
50.6603
50.3614
50.0626
49.7637
49.4648
49.1659
48.8671
48.5682
48.2693
47.9704
47.6715
47.3727
47.0738
46.7749
46.476
46.1771
45.8783
45.5794
45.2805
44.9816
44.6827
44.3839
44.085
43.7861
43.4872
43.1883
42.8895
42.5906
42.2917
41.9928
41.6939
41.3951
41.0962
40.7973
40.4984
40.1995
39.9007
39.6018
39.3029
39.004
38.7051
38.4063
38.1074
37.8085
37.5096
37.2108
36.9119
36.613
36.3141
36.0152
35.7164
35.4175
35.1186
34.8197
34.5208
34.222
33.9231
33.6242
33.3253
33.0264
32.7275
32.4287
32.1298
31.8309
31.532
31.2331
30.9342
30.6354
30.3365
30.0376
29.7387
29.4398
29.1409
28.842
28.5432
28.2443
27.9454
27.6465
27.3476
27.0487
26.7498
26.4509
26.1521
25.8532
25.5543
25.2554
24.9565
24.6576
24.3587
24.0598
23.7609
23.462
23.1632
22.8643
22.5654
22.2665
21.9676
21.6687
21.3698
21.0709
20.772
20.4731
20.1742
19.8754
19.5765
19.2776
18.9787
18.6798
18.3809
18.082
17.7831
17.4842
17.1853
16.8865
16.5876
16.2887
15.9898
15.6909
15.392
15.0931
14.7942
14.4953
14.1965
13.8976
13.5987
13.2998
13.0009
12.702
12.4031
12.1042
11.8054
11.5065
11.2076
10.9087
10.6098
10.3109
10.012
9.71317
9.41428
9.1154
8.81652
8.51764
8.21876
7.91987
7.62099
7.32211
7.02323
6.72435
6.42547
6.12659
5.82771
5.52884
5.22996
4.93108
4.63221
4.33333
4.03446
3.73559
3.43672
3.13785
2.83898
2.54012
2.24131
1.94247
1.6434
1.34421
1.04613
0.748763
0.446472
0.148115
117.939
118.165
118.266
118.238
118.113
117.915
117.666
117.389
117.094
116.79
116.481
116.171
115.861
115.553
115.246
114.941
114.637
114.334
114.033
113.732
113.432
113.132
112.832
112.533
112.233
111.934
111.635
111.336
111.037
110.738
110.439
110.141
109.842
109.543
109.244
108.945
108.646
108.347
108.048
107.749
107.45
107.151
106.852
106.554
106.255
105.956
105.657
105.358
105.059
104.76
104.461
104.162
103.863
103.564
103.265
102.966
102.668
102.369
102.07
101.771
101.472
101.173
100.874
100.575
100.276
99.9772
99.6783
99.3794
99.0805
98.7816
98.4826
98.1837
97.8848
97.5859
97.287
96.9881
96.6892
96.3902
96.0913
95.7924
95.4935
95.1946
94.8957
94.5968
94.2979
93.9989
93.7
93.4011
93.1022
92.8033
92.5044
92.2055
91.9066
91.6077
91.3088
91.0099
90.711
90.4121
90.1132
89.8142
89.5153
89.2164
88.9175
88.6186
88.3197
88.0208
87.7219
87.423
87.1241
86.8252
86.5263
86.2274
85.9285
85.6296
85.3307
85.0318
84.7329
84.434
84.1352
83.8363
83.5374
83.2385
82.9396
82.6407
82.3418
82.0429
81.744
81.4451
81.1462
80.8473
80.5484
80.2495
79.9507
79.6518
79.3529
79.054
78.7551
78.4562
78.1573
77.8584
77.5595
77.2607
76.9618
76.6629
76.364
76.0651
75.7662
75.4673
75.1685
74.8696
74.5707
74.2718
73.9729
73.674
73.3752
73.0763
72.7774
72.4785
72.1796
71.8808
71.5819
71.283
70.9841
70.6852
70.3864
70.0875
69.7886
69.4897
69.1908
68.892
68.5931
68.2942
67.9953
67.6965
67.3976
67.0987
66.7998
66.5009
66.2021
65.9032
65.6043
65.3054
65.0065
64.7077
64.4088
64.1099
63.811
63.5122
63.2133
62.9144
62.6155
62.3166
62.0178
61.7189
61.42
61.1211
60.8222
60.5234
60.2245
59.9256
59.6267
59.3278
59.029
58.7301
58.4312
58.1323
57.8334
57.5346
57.2357
56.9368
56.6379
56.339
56.0402
55.7413
55.4424
55.1435
54.8446
54.5458
54.2469
53.948
53.6491
53.3502
53.0514
52.7525
52.4536
52.1547
51.8558
51.557
51.2581
50.9592
50.6603
50.3614
50.0626
49.7637
49.4648
49.1659
48.8671
48.5682
48.2693
47.9704
47.6715
47.3727
47.0738
46.7749
46.476
46.1771
45.8783
45.5794
45.2805
44.9816
44.6827
44.3839
44.085
43.7861
43.4872
43.1883
42.8895
42.5906
42.2917
41.9928
41.6939
41.3951
41.0962
40.7973
40.4984
40.1995
39.9007
39.6018
39.3029
39.004
38.7051
38.4063
38.1074
37.8085
37.5096
37.2108
36.9119
36.613
36.3141
36.0152
35.7164
35.4175
35.1186
34.8197
34.5208
34.222
33.9231
33.6242
33.3253
33.0264
32.7275
32.4287
32.1298
31.8309
31.532
31.2331
30.9342
30.6354
30.3365
30.0376
29.7387
29.4398
29.1409
28.842
28.5432
28.2443
27.9454
27.6465
27.3476
27.0487
26.7498
26.4509
26.1521
25.8532
25.5543
25.2554
24.9565
24.6576
24.3587
24.0598
23.7609
23.462
23.1632
22.8643
22.5654
22.2665
21.9676
21.6687
21.3698
21.0709
20.772
20.4731
20.1742
19.8754
19.5765
19.2776
18.9787
18.6798
18.3809
18.082
17.7831
17.4842
17.1853
16.8865
16.5876
16.2887
15.9898
15.6909
15.392
15.0931
14.7942
14.4953
14.1965
13.8976
13.5987
13.2998
13.0009
12.702
12.4031
12.1042
11.8054
11.5065
11.2076
10.9087
10.6098
10.3109
10.012
9.71317
9.41428
9.1154
8.81652
8.51764
8.21876
7.91987
7.62099
7.32211
7.02323
6.72435
6.42547
6.1266
5.82772
5.52884
5.22996
4.93109
4.63221
4.33334
4.03447
3.7356
3.43674
3.13787
2.839
2.54015
2.24134
1.9425
1.64341
1.34423
1.0462
0.748857
0.446282
0.148216
117.818
118.047
118.16
118.152
118.048
117.868
117.635
117.369
117.082
116.783
116.478
116.17
115.861
115.554
115.247
114.942
114.638
114.335
114.034
113.733
113.432
113.132
112.832
112.533
112.234
111.934
111.635
111.336
111.037
110.738
110.439
110.141
109.842
109.543
109.244
108.945
108.646
108.347
108.048
107.749
107.45
107.151
106.852
106.554
106.255
105.956
105.657
105.358
105.059
104.76
104.461
104.162
103.863
103.564
103.265
102.966
102.668
102.369
102.07
101.771
101.472
101.173
100.874
100.575
100.276
99.9772
99.6783
99.3794
99.0805
98.7816
98.4826
98.1837
97.8848
97.5859
97.287
96.9881
96.6892
96.3902
96.0913
95.7924
95.4935
95.1946
94.8957
94.5968
94.2979
93.9989
93.7
93.4011
93.1022
92.8033
92.5044
92.2055
91.9066
91.6077
91.3088
91.0099
90.711
90.4121
90.1132
89.8142
89.5153
89.2164
88.9175
88.6186
88.3197
88.0208
87.7219
87.423
87.1241
86.8252
86.5263
86.2274
85.9285
85.6296
85.3307
85.0318
84.7329
84.434
84.1352
83.8363
83.5374
83.2385
82.9396
82.6407
82.3418
82.0429
81.744
81.4451
81.1462
80.8473
80.5484
80.2495
79.9507
79.6518
79.3529
79.054
78.7551
78.4562
78.1573
77.8584
77.5595
77.2607
76.9618
76.6629
76.364
76.0651
75.7662
75.4673
75.1685
74.8696
74.5707
74.2718
73.9729
73.674
73.3752
73.0763
72.7774
72.4785
72.1796
71.8808
71.5819