// This file is part of aldFoam
// Copyright 2019 Argonne UChicago LLC

FoamFile
{
    version     2.0;
    format      ascii;
    class       volVectorField;
    location    "0";
    object      U;
}

dimensions      [0 1 -1 0 0 0 0];

internalField   nonuniform List<vector>
8000
(
(0.736803 0.117635 0)
(0.620274 0.101013 0)
(0.454621 0.051439 0)
(0.337198 0.0266464 0)
(0.267491 0.0149109 0)
(0.22485 0.00846684 0)
(0.197783 0.00485255 0)
(0.180378 0.00283707 0)
(0.16911 0.00168713 0)
(0.16179 0.00101021 0)
(0.157039 0.000602602 0)
(0.153975 0.000354232 0)
(0.152023 0.000202287 0)
(0.150804 0.00010974 0)
(0.150064 5.40878e-05 0)
(0.149632 2.15132e-05 0)
(0.149396 3.28059e-06 0)
(0.149281 -6.11043e-06 0)
(0.149236 -1.02278e-05 0)
(0.149232 -1.1297e-05 0)
(0.149248 -1.07553e-05 0)
(0.149273 -9.43875e-06 0)
(0.1493 -7.87566e-06 0)
(0.149325 -6.32059e-06 0)
(0.149347 -4.93447e-06 0)
(0.149366 -3.74964e-06 0)
(0.14938 -2.79603e-06 0)
(0.149392 -2.03499e-06 0)
(0.1494 -1.46045e-06 0)
(0.149407 -1.02047e-06 0)
(0.149411 -7.06737e-07 0)
(0.149415 -4.72671e-07 0)
(0.149417 -3.17118e-07 0)
(0.149419 -2.02298e-07 0)
(0.14942 -1.34214e-07 0)
(0.149421 -8.27588e-08 0)
(0.149422 -5.91317e-08 0)
(0.149422 -3.84695e-08 0)
(0.149422 -3.51369e-08 0)
(0.149422 -2.77079e-08 0)
(0.149422 -3.19753e-08 0)
(0.149422 -2.87655e-08 0)
(0.149422 -3.43823e-08 0)
(0.149422 -3.11993e-08 0)
(0.149422 -3.54043e-08 0)
(0.149422 -3.05403e-08 0)
(0.149422 -3.23606e-08 0)
(0.149422 -2.54124e-08 0)
(0.149422 -2.47964e-08 0)
(0.149422 -1.59895e-08 0)
(0.149422 -1.332e-08 0)
(0.149422 -3.19305e-09 0)
(0.149422 9.42687e-10 0)
(0.149422 1.17383e-08 0)
(0.149422 1.66942e-08 0)
(0.149422 2.74782e-08 0)
(0.149422 3.26247e-08 0)
(0.149422 4.27943e-08 0)
(0.149422 4.76069e-08 0)
(0.149422 5.6638e-08 0)
(0.149422 6.06746e-08 0)
(0.149422 6.82016e-08 0)
(0.149422 7.11986e-08 0)
(0.149422 7.69967e-08 0)
(0.149422 7.88105e-08 0)
(0.149422 8.27753e-08 0)
(0.149422 8.33742e-08 0)
(0.149422 8.55179e-08 0)
(0.149423 8.49844e-08 0)
(0.149423 8.54256e-08 0)
(0.149423 8.39204e-08 0)
(0.149423 8.28342e-08 0)
(0.149423 8.05611e-08 0)
(0.149423 7.81671e-08 0)
(0.149423 7.53622e-08 0)
(0.149423 7.18968e-08 0)
(0.149423 6.87962e-08 0)
(0.149423 6.44944e-08 0)
(0.149423 6.13248e-08 0)
(0.149423 5.63976e-08 0)
(0.149423 5.33508e-08 0)
(0.149423 4.7984e-08 0)
(0.149423 4.52329e-08 0)
(0.149423 3.9587e-08 0)
(0.149423 3.72621e-08 0)
(0.149423 3.14596e-08 0)
(0.149423 2.96595e-08 0)
(0.149423 2.37701e-08 0)
(0.149423 2.25524e-08 0)
(0.149423 1.66379e-08 0)
(0.149423 1.60404e-08 0)
(0.149423 1.0134e-08 0)
(0.149423 1.01699e-08 0)
(0.149423 4.28173e-09 0)
(0.149423 4.94818e-09 0)
(0.149423 -9.23738e-10 0)
(0.149423 3.53026e-10 0)
(0.149423 -5.52046e-09 0)
(0.149423 -3.65846e-09 0)
(0.149423 -9.54911e-09 0)
(0.149423 -7.13215e-09 0)
(0.149423 -1.30643e-08 0)
(0.149423 -1.01232e-08 0)
(0.149423 -1.61156e-08 0)
(0.149423 -1.26843e-08 0)
(0.149423 -1.87618e-08 0)
(0.149423 -1.48699e-08 0)
(0.149423 -2.10443e-08 0)
(0.149423 -1.67186e-08 0)
(0.149423 -2.3006e-08 0)
(0.149423 -1.82691e-08 0)
(0.149423 -2.46738e-08 0)
(0.149423 -1.9548e-08 0)
(0.149423 -2.60812e-08 0)
(0.149423 -2.05849e-08 0)
(0.149423 -2.72431e-08 0)
(0.149423 -2.13917e-08 0)
(0.149423 -2.81788e-08 0)
(0.149423 -2.19841e-08 0)
(0.149423 -2.88909e-08 0)
(0.149422 -2.23647e-08 0)
(0.149422 -2.93928e-08 0)
(0.149422 -2.25439e-08 0)
(0.149422 -2.968e-08 0)
(0.149422 -2.25139e-08 0)
(0.149422 -2.97544e-08 0)
(0.149422 -2.22727e-08 0)
(0.149422 -2.96e-08 0)
(0.149422 -2.18042e-08 0)
(0.149422 -2.92158e-08 0)
(0.149422 -2.11079e-08 0)
(0.149422 -2.85906e-08 0)
(0.149422 -2.01755e-08 0)
(0.149422 -2.77368e-08 0)
(0.149422 -1.90263e-08 0)
(0.149422 -2.66694e-08 0)
(0.149422 -1.76882e-08 0)
(0.149422 -2.54485e-08 0)
(0.149422 -1.62371e-08 0)
(0.149422 -2.41489e-08 0)
(0.149422 -1.4737e-08 0)
(0.149422 -2.28652e-08 0)
(0.149422 -1.33789e-08 0)
(0.149422 -2.17744e-08 0)
(0.149422 -1.22638e-08 0)
(0.149422 -2.10205e-08 0)
(0.149422 -1.15632e-08 0)
(0.149422 -2.07279e-08 0)
(0.149422 -1.13941e-08 0)
(0.149422 -2.10159e-08 0)
(0.149422 -1.18538e-08 0)
(0.149422 -2.1938e-08 0)
(0.149422 -1.29656e-08 0)
(0.149422 -2.34975e-08 0)
(0.149422 -1.46996e-08 0)
(0.149422 -2.5609e-08 0)
(0.149422 -1.69317e-08 0)
(0.149422 -2.81317e-08 0)
(0.149422 -1.94876e-08 0)
(0.149421 -3.0821e-08 0)
(0.149421 -2.21186e-08 0)
(0.149421 -3.34946e-08 0)
(0.149421 -2.46104e-08 0)
(0.149421 -3.58645e-08 0)
(0.149421 -2.66873e-08 0)
(0.149421 -3.77101e-08 0)
(0.149421 -2.81663e-08 0)
(0.149421 -3.88552e-08 0)
(0.149421 -2.88979e-08 0)
(0.149421 -3.92168e-08 0)
(0.149421 -2.88478e-08 0)
(0.149421 -3.87945e-08 0)
(0.149421 -2.80523e-08 0)
(0.149421 -3.76905e-08 0)
(0.149421 -2.66846e-08 0)
(0.149421 -3.61011e-08 0)
(0.149421 -2.49519e-08 0)
(0.149421 -3.42837e-08 0)
(0.149421 -2.31309e-08 0)
(0.149421 -3.24909e-08 0)
(0.149421 -2.1458e-08 0)
(0.149421 -3.09612e-08 0)
(0.149421 -2.01463e-08 0)
(0.149421 -2.98567e-08 0)
(0.149421 -1.93229e-08 0)
(0.149421 -2.92764e-08 0)
(0.149421 -1.90321e-08 0)
(0.149421 -2.91964e-08 0)
(0.149421 -1.91906e-08 0)
(0.149421 -2.94934e-08 0)
(0.149421 -1.96284e-08 0)
(0.149421 -2.99437e-08 0)
(0.149421 -2.00936e-08 0)
(0.149421 -3.03028e-08 0)
(0.149421 -2.03393e-08 0)
(0.149421 -3.03031e-08 0)
(0.149421 -2.01018e-08 0)
(0.149421 -2.97072e-08 0)
(0.149421 -1.91571e-08 0)
(0.149421 -2.83189e-08 0)
(0.149421 -1.73599e-08 0)
(0.149421 -2.60546e-08 0)
(0.149421 -1.46844e-08 0)
(0.149421 -2.29376e-08 0)
(0.149421 -1.11963e-08 0)
(0.149421 -1.91042e-08 0)
(0.149421 -7.09052e-09 0)
(0.149421 -1.47672e-08 0)
(0.149421 -2.60689e-09 0)
(0.149421 -1.01879e-08 0)
(0.149421 1.95704e-09 0)
(0.149421 -5.73053e-09 0)
(0.149421 6.25455e-09 0)
(0.149421 -1.6745e-09 0)
(0.149421 1.00239e-08 0)
(0.149421 1.75044e-09 0)
(0.149421 1.30704e-08 0)
(0.149421 4.37336e-09 0)
(0.149421 1.52701e-08 0)
(0.149421 6.14088e-09 0)
(0.149421 1.66203e-08 0)
(0.149421 7.08127e-09 0)
(0.149421 1.71893e-08 0)
(0.149421 7.32603e-09 0)
(0.149421 1.71473e-08 0)
(0.149421 7.05011e-09 0)
(0.149421 1.66784e-08 0)
(0.149421 6.45996e-09 0)
(0.149421 1.59974e-08 0)
(0.149421 5.76481e-09 0)
(0.149421 1.53202e-08 0)
(0.149421 5.19726e-09 0)
(0.149421 1.48491e-08 0)
(0.149421 4.90194e-09 0)
(0.149421 1.47185e-08 0)
(0.149421 5.02251e-09 0)
(0.149421 1.50465e-08 0)
(0.149421 5.63536e-09 0)
(0.149421 1.58944e-08 0)
(0.149421 6.79963e-09 0)
(0.149421 1.7303e-08 0)
(0.149421 8.51648e-09 0)
(0.149421 1.92534e-08 0)
(0.149421 1.07653e-08 0)
(0.149421 2.17201e-08 0)
(0.149421 1.35015e-08 0)
(0.149421 2.46394e-08 0)
(0.149421 1.66451e-08 0)
(0.149421 2.7921e-08 0)
(0.149421 2.00804e-08 0)
(0.149421 3.14302e-08 0)
(0.149421 2.36479e-08 0)
(0.149421 3.49374e-08 0)
(0.149421 2.7102e-08 0)
(0.149421 3.82459e-08 0)
(0.149422 3.02442e-08 0)
(0.149422 4.11245e-08 0)
(0.149422 3.28251e-08 0)
(0.149422 4.33156e-08 0)
(0.149422 3.46173e-08 0)
(0.149422 4.46108e-08 0)
(0.149422 3.54179e-08 0)
(0.149422 4.48271e-08 0)
(0.149422 3.50923e-08 0)
(0.149422 4.38638e-08 0)
(0.149422 3.35667e-08 0)
(0.149422 4.16845e-08 0)
(0.149422 3.08645e-08 0)
(0.149422 3.83548e-08 0)
(0.149422 2.70782e-08 0)
(0.149422 3.39984e-08 0)
(0.149422 2.23766e-08 0)
(0.149422 2.88111e-08 0)
(0.149422 1.69645e-08 0)
(0.149422 2.30119e-08 0)
(0.149422 1.10848e-08 0)
(0.149422 1.68519e-08 0)
(0.149422 4.97407e-09 0)
(0.149422 1.05577e-08 0)
(0.149422 -1.14466e-09 0)
(0.149422 4.3401e-09 0)
(0.149422 -7.08568e-09 0)
(0.149422 -1.63327e-09 0)
(0.149422 -1.26948e-08 0)
(0.149422 -7.22141e-09 0)
(0.149422 -1.78696e-08 0)
(0.149422 -1.23433e-08 0)
(0.149422 -2.25217e-08 0)
(0.149422 -1.69179e-08 0)
(0.149422 -2.6607e-08 0)
(0.149422 -2.0921e-08 0)
(0.149422 -3.01018e-08 0)
(0.149422 -2.43272e-08 0)
(0.149422 -3.29949e-08 0)
(0.149422 -2.71332e-08 0)
(0.149422 -3.52878e-08 0)
(0.149422 -2.9345e-08 0)
(0.149422 -3.69954e-08 0)
(0.149421 -3.09741e-08 0)
(0.149421 -3.81214e-08 0)
(0.149421 -3.20198e-08 0)
(0.149421 -3.86726e-08 0)
(0.149421 -3.24928e-08 0)
(0.149421 -3.86619e-08 0)
(0.149421 -3.24076e-08 0)
(0.149421 -3.81084e-08 0)
(0.149421 -3.17775e-08 0)
(0.149421 -3.7017e-08 0)
(0.149421 -3.06036e-08 0)
(0.149421 -3.53945e-08 0)
(0.149421 -2.88958e-08 0)
(0.149421 -3.32547e-08 0)
(0.149421 -2.66717e-08 0)
(0.149421 -3.06187e-08 0)
(0.149421 -2.39466e-08 0)
(0.149421 -2.74948e-08 0)
(0.149421 -2.07259e-08 0)
(0.149421 -2.38931e-08 0)
(0.149421 -1.70227e-08 0)
(0.149421 -1.98314e-08 0)
(0.149421 -1.28599e-08 0)
(0.149421 -1.53358e-08 0)
(0.149421 -8.25777e-09 0)
(0.149421 -1.042e-08 0)
(0.149421 -3.22839e-09 0)
(0.149421 -5.10023e-09 0)
(0.149421 2.21025e-09 0)
(0.149421 6.01755e-10 0)
(0.149421 8.03068e-09 0)
(0.149421 6.65531e-09 0)
(0.149421 1.42092e-08 0)
(0.149421 1.3042e-08 0)
(0.149421 2.07265e-08 0)
(0.149421 1.97426e-08 0)
(0.149421 2.75681e-08 0)
(0.149421 2.6737e-08 0)
(0.149421 3.47061e-08 0)
(0.149421 3.39987e-08 0)
(0.149421 4.21169e-08 0)
(0.149421 4.15119e-08 0)
(0.149421 4.97948e-08 0)
(0.149421 4.92862e-08 0)
(0.149421 5.7745e-08 0)
(0.149421 5.72923e-08 0)
(0.149421 6.59452e-08 0)
(0.149421 6.5527e-08 0)
(0.149421 7.44049e-08 0)
(0.149421 7.40167e-08 0)
(0.149421 8.31423e-08 0)
(0.149421 8.27789e-08 0)
(0.149421 9.21943e-08 0)
(0.149422 9.18529e-08 0)
(0.149422 1.01592e-07 0)
(0.149422 1.01267e-07 0)
(0.149422 1.11376e-07 0)
(0.149422 1.11074e-07 0)
(0.149422 1.21599e-07 0)
(0.149422 1.21324e-07 0)
(0.149422 1.32327e-07 0)
(0.149422 1.32105e-07 0)
(0.149422 1.43659e-07 0)
(0.149422 1.43519e-07 0)
(0.149422 1.55716e-07 0)
(0.149422 1.55714e-07 0)
(0.149423 1.68655e-07 0)
(0.149423 1.68818e-07 0)
(0.149423 1.82572e-07 0)
(0.149423 1.82866e-07 0)
(0.149423 1.97368e-07 0)
(0.149423 1.97545e-07 0)
(0.149423 2.12484e-07 0)
(0.149423 2.12027e-07 0)
(0.149424 2.26796e-07 0)
(0.149424 2.24976e-07 0)
(0.149424 2.38957e-07 0)
(0.149424 2.35377e-07 0)
(0.149424 2.48602e-07 0)
(0.149425 2.43855e-07 0)
(0.149425 2.57423e-07 0)
(0.149425 2.5295e-07 0)
(0.149425 2.68322e-07 0)
(0.149426 2.65628e-07 0)
(0.149426 2.85169e-07 0)
(0.149426 2.88675e-07 0)
(0.149427 3.19931e-07 0)
(0.149427 3.39357e-07 0)
(0.149427 3.86217e-07 0)
(0.149428 4.0695e-07 0)
(0.149428 4.21419e-07 0)
(0.149428 3.49419e-07 0)
(0.149428 2.04538e-07 0)
(0.149427 -7.22901e-08 0)
(0.149426 -3.14087e-07 0)
(0.149424 -1.26803e-07 0)
(0.149421 1.01421e-06 0)
(0.149416 1.91395e-06 0)
(0.149406 -1.68206e-06 0)
(0.149398 -8.77553e-06 0)
(0.149386 -4.15533e-06 0)
(0.149355 1.47771e-05 0)
(1.00241 0.260647 0)
(0.980627 0.303555 0)
(0.863989 0.222509 0)
(0.7429 0.149315 0)
(0.648416 0.0980254 0)
(0.578792 0.0640079 0)
(0.528645 0.0419057 0)
(0.49317 0.0275584 0)
(0.468422 0.0181651 0)
(0.451351 0.0119586 0)
(0.439702 0.00783086 0)
(0.431847 0.00507747 0)
(0.426626 0.00324282 0)
(0.423216 0.00202704 0)
(0.421037 0.0012296 0)
(0.419681 0.000714434 0)
(0.418869 0.000388546 0)
(0.418408 0.000188124 0)
(0.418166 6.9632e-05 0)
(0.418059 3.51398e-06 0)
(0.418029 -2.99696e-05 0)
(0.418041 -4.38743e-05 0)
(0.418073 -4.65944e-05 0)
(0.418112 -4.34571e-05 0)
(0.41815 -3.76708e-05 0)
(0.418185 -3.11342e-05 0)
(0.418214 -2.48434e-05 0)
(0.418238 -1.93013e-05 0)
(0.418257 -1.46604e-05 0)
(0.418272 -1.09332e-05 0)
(0.418283 -8.01306e-06 0)
(0.418291 -5.7896e-06 0)
(0.418297 -4.11825e-06 0)
(0.418301 -2.89299e-06 0)
(0.418304 -1.99796e-06 0)
(0.418306 -1.36191e-06 0)
(0.418308 -9.06001e-07 0)
(0.418309 -5.91205e-07 0)
(0.41831 -3.67236e-07 0)
(0.41831 -2.17304e-07 0)
(0.41831 -1.09412e-07 0)
(0.418311 -4.00632e-08 0)
(0.418311 1.21491e-08 0)
(0.418311 4.35921e-08 0)
(0.418311 6.98537e-08 0)
(0.418311 8.38986e-08 0)
(0.418311 9.81268e-08 0)
(0.418311 1.04232e-07 0)
(0.418311 1.12677e-07 0)
(0.418311 1.15096e-07 0)
(0.418311 1.20497e-07 0)
(0.418311 1.21174e-07 0)
(0.418311 1.2475e-07 0)
(0.418311 1.24657e-07 0)
(0.418311 1.27007e-07 0)
(0.418311 1.26724e-07 0)
(0.418311 1.28193e-07 0)
(0.418311 1.28111e-07 0)
(0.418311 1.28923e-07 0)
(0.418311 1.29348e-07 0)
(0.418311 1.29686e-07 0)
(0.418311 1.30831e-07 0)
(0.418311 1.30779e-07 0)
(0.418311 1.3277e-07 0)
(0.418311 1.3239e-07 0)
(0.418311 1.353e-07 0)
(0.418311 1.34612e-07 0)
(0.418311 1.38453e-07 0)
(0.418311 1.37443e-07 0)
(0.418311 1.42174e-07 0)
(0.418312 1.40808e-07 0)
(0.418312 1.46365e-07 0)
(0.418312 1.44601e-07 0)
(0.418312 1.50893e-07 0)
(0.418312 1.48689e-07 0)
(0.418312 1.55624e-07 0)
(0.418312 1.52944e-07 0)
(0.418312 1.6043e-07 0)
(0.418312 1.57254e-07 0)
(0.418312 1.65214e-07 0)
(0.418312 1.61535e-07 0)
(0.418312 1.69902e-07 0)
(0.418312 1.65723e-07 0)
(0.418312 1.74437e-07 0)
(0.418312 1.69763e-07 0)
(0.418312 1.78776e-07 0)
(0.418312 1.73634e-07 0)
(0.418312 1.82924e-07 0)
(0.418312 1.77341e-07 0)
(0.418312 1.86877e-07 0)
(0.418312 1.80871e-07 0)
(0.418312 1.90625e-07 0)
(0.418312 1.84213e-07 0)
(0.418312 1.94157e-07 0)
(0.418312 1.8735e-07 0)
(0.418312 1.97458e-07 0)
(0.418312 1.9026e-07 0)
(0.418312 2.00499e-07 0)
(0.418312 1.92904e-07 0)
(0.418312 2.03239e-07 0)
(0.418312 1.95235e-07 0)
(0.418312 2.05628e-07 0)
(0.418312 1.97197e-07 0)
(0.418312 2.07612e-07 0)
(0.418312 1.98735e-07 0)
(0.418312 2.09133e-07 0)
(0.418312 1.99785e-07 0)
(0.418312 2.1013e-07 0)
(0.418312 2.00292e-07 0)
(0.418312 2.10551e-07 0)
(0.418312 2.00206e-07 0)
(0.418312 2.10356e-07 0)
(0.418312 1.99497e-07 0)
(0.418312 2.09527e-07 0)
(0.418312 1.98157e-07 0)
(0.418312 2.08067e-07 0)
(0.418312 1.96206e-07 0)
(0.418312 2.0602e-07 0)
(0.418312 1.9371e-07 0)
(0.418312 2.03475e-07 0)
(0.418312 1.90786e-07 0)
(0.418312 2.00582e-07 0)
(0.418312 1.87614e-07 0)
(0.418312 1.97551e-07 0)
(0.418312 1.84437e-07 0)
(0.418312 1.94661e-07 0)
(0.418312 1.81561e-07 0)
(0.418312 1.92242e-07 0)
(0.418312 1.79335e-07 0)
(0.418312 1.90653e-07 0)
(0.418312 1.78109e-07 0)
(0.418312 1.90227e-07 0)
(0.418312 1.78185e-07 0)
(0.418312 1.91221e-07 0)
(0.418312 1.79753e-07 0)
(0.418312 1.93741e-07 0)
(0.418312 1.82821e-07 0)
(0.418312 1.97689e-07 0)
(0.418312 1.87162e-07 0)
(0.418312 2.02697e-07 0)
(0.418312 1.92277e-07 0)
(0.418312 2.08143e-07 0)
(0.418312 1.97444e-07 0)
(0.418312 2.13207e-07 0)
(0.418312 2.01744e-07 0)
(0.418312 2.169e-07 0)
(0.418312 2.04168e-07 0)
(0.418312 2.18215e-07 0)
(0.418312 2.03765e-07 0)
(0.418312 2.16277e-07 0)
(0.418312 1.99776e-07 0)
(0.418312 2.10467e-07 0)
(0.418312 1.91764e-07 0)
(0.418312 2.00541e-07 0)
(0.418312 1.79696e-07 0)
(0.418312 1.8668e-07 0)
(0.418312 1.63982e-07 0)
(0.418312 1.69505e-07 0)
(0.418312 1.45427e-07 0)
(0.418312 1.49983e-07 0)
(0.418312 1.25158e-07 0)
(0.418312 1.29368e-07 0)
(0.418312 1.04476e-07 0)
(0.418312 1.08962e-07 0)
(0.418312 8.46634e-08 0)
(0.418312 9.00034e-08 0)
(0.418312 6.68536e-08 0)
(0.418312 7.349e-08 0)
(0.418312 5.18662e-08 0)
(0.418312 6.00519e-08 0)
(0.418312 4.01181e-08 0)
(0.418312 4.98903e-08 0)
(0.418311 3.15819e-08 0)
(0.418311 4.27705e-08 0)
(0.418311 2.58264e-08 0)
(0.418311 3.80849e-08 0)
(0.418311 2.20898e-08 0)
(0.418311 3.49583e-08 0)
(0.418311 1.94199e-08 0)
(0.418311 3.23968e-08 0)
(0.418311 1.68282e-08 0)
(0.418311 2.94565e-08 0)
(0.418311 1.34597e-08 0)
(0.418311 2.5407e-08 0)
(0.418311 8.74732e-09 0)
(0.418311 1.98536e-08 0)
(0.418311 2.48579e-09 0)
(0.418311 1.27912e-08 0)
(0.418311 -5.12595e-09 0)
(0.418311 4.60526e-09 0)
(0.418311 -1.35319e-08 0)
(0.418311 -3.99095e-09 0)
(0.418311 -2.18873e-08 0)
(0.418311 -1.20523e-08 0)
(0.418311 -2.9195e-08 0)
(0.418311 -1.85629e-08 0)
(0.418311 -3.44693e-08 0)
(0.418311 -2.25983e-08 0)
(0.418311 -3.69004e-08 0)
(0.418311 -2.34807e-08 0)
(0.418311 -3.59763e-08 0)
(0.418311 -2.08777e-08 0)
(0.418311 -3.15763e-08 0)
(0.418311 -1.48779e-08 0)
(0.418311 -2.40105e-08 0)
(0.418311 -5.99316e-09 0)
(0.418311 -1.39869e-08 0)
(0.418311 4.88052e-09 0)
(0.418311 -2.56364e-09 0)
(0.418311 1.65656e-08 0)
(0.418311 9.01998e-09 0)
(0.418311 2.77966e-08 0)
(0.418311 1.94968e-08 0)
(0.418311 3.73247e-08 0)
(0.418311 2.76979e-08 0)
(0.418311 4.40849e-08 0)
(0.418311 3.27097e-08 0)
(0.418311 4.73288e-08 0)
(0.418311 3.39691e-08 0)
(0.418311 4.66732e-08 0)
(0.418311 3.13028e-08 0)
(0.418311 4.21392e-08 0)
(0.418311 2.49163e-08 0)
(0.418311 3.40845e-08 0)
(0.418311 1.53142e-08 0)
(0.418311 2.31403e-08 0)
(0.418311 3.23517e-09 0)
(0.418311 1.01191e-08 0)
(0.418311 -1.04587e-08 0)
(0.418311 -4.09034e-09 0)
(0.418311 -2.4879e-08 0)
(0.418311 -1.8619e-08 0)
(0.418311 -3.91804e-08 0)
(0.418311 -3.26324e-08 0)
(0.418311 -5.25676e-08 0)
(0.418311 -4.539e-08 0)
(0.418311 -6.43565e-08 0)
(0.418311 -5.62419e-08 0)
(0.418311 -7.39451e-08 0)
(0.418311 -6.4632e-08 0)
(0.418311 -8.08355e-08 0)
(0.418311 -7.0103e-08 0)
(0.418311 -8.46239e-08 0)
(0.418311 -7.23101e-08 0)
(0.418311 -8.50525e-08 0)
(0.418311 -7.10718e-08 0)
(0.418311 -8.20279e-08 0)
(0.418311 -6.63934e-08 0)
(0.418311 -7.56846e-08 0)
(0.418311 -5.85362e-08 0)
(0.418311 -6.64148e-08 0)
(0.418311 -4.80184e-08 0)
(0.418311 -5.4864e-08 0)
(0.418311 -3.56287e-08 0)
(0.418311 -4.19737e-08 0)
(0.418311 -2.24207e-08 0)
(0.418311 -2.88684e-08 0)
(0.418311 -9.58814e-09 0)
(0.418311 -1.67713e-08 0)
(0.418311 1.63768e-09 0)
(0.418311 -6.87042e-09 0)
(0.418311 1.0136e-08 0)
(0.418311 -1.71783e-10 0)
(0.418311 1.50283e-08 0)
(0.418311 2.62023e-09 0)
(0.418311 1.57882e-08 0)
(0.418311 1.18713e-09 0)
(0.418311 1.22959e-08 0)
(0.418311 -4.37228e-09 0)
(0.418311 4.84964e-09 0)
(0.418311 -1.35635e-08 0)
(0.418311 -5.89207e-09 0)
(0.418311 -2.55786e-08 0)
(0.418311 -1.90076e-08 0)
(0.418311 -3.94106e-08 0)
(0.418311 -3.34394e-08 0)
(0.418311 -5.39779e-08 0)
(0.418311 -4.81082e-08 0)
(0.418311 -6.82347e-08 0)
(0.418311 -6.20218e-08 0)
(0.418311 -8.12679e-08 0)
(0.418311 -7.43589e-08 0)
(0.418311 -9.23697e-08 0)
(0.418311 -8.45179e-08 0)
(0.418311 -1.0105e-07 0)
(0.418311 -9.2109e-08 0)
(0.418311 -1.0704e-07 0)
(0.418311 -9.69791e-08 0)
(0.418311 -1.10286e-07 0)
(0.418311 -9.9143e-08 0)
(0.418311 -1.10882e-07 0)
(0.418311 -9.87609e-08 0)
(0.418311 -1.09048e-07 0)
(0.418311 -9.60882e-08 0)
(0.418311 -1.05072e-07 0)
(0.418311 -9.14308e-08 0)
(0.418311 -9.92771e-08 0)
(0.418311 -8.51144e-08 0)
(0.418311 -9.1995e-08 0)
(0.418311 -7.74678e-08 0)
(0.418311 -8.35485e-08 0)
(0.418311 -6.87968e-08 0)
(0.418311 -7.42272e-08 0)
(0.418311 -5.93683e-08 0)
(0.418311 -6.4281e-08 0)
(0.418311 -4.94162e-08 0)
(0.418311 -5.39331e-08 0)
(0.418312 -3.91495e-08 0)
(0.418312 -4.33798e-08 0)
(0.418312 -2.87497e-08 0)
(0.418312 -3.27879e-08 0)
(0.418312 -1.83665e-08 0)
(0.418312 -2.22954e-08 0)
(0.418312 -8.13159e-09 0)
(0.418312 -1.2031e-08 0)
(0.418312 1.83113e-09 0)
(0.418312 -2.11272e-09 0)
(0.418312 1.14106e-08 0)
(0.418312 7.35835e-09 0)
(0.418312 2.05186e-08 0)
(0.418312 1.63051e-08 0)
(0.418312 2.90844e-08 0)
(0.418312 2.46634e-08 0)
(0.418312 3.70534e-08 0)
(0.418312 3.23919e-08 0)
(0.418312 4.43996e-08 0)
(0.418312 3.94849e-08 0)
(0.418312 5.1142e-08 0)
(0.418312 4.59854e-08 0)
(0.418312 5.73438e-08 0)
(0.418312 5.19776e-08 0)
(0.418312 6.31144e-08 0)
(0.418312 5.75977e-08 0)
(0.418312 6.86164e-08 0)
(0.418312 6.30361e-08 0)
(0.418312 7.40733e-08 0)
(0.418312 6.85457e-08 0)
(0.418312 7.97616e-08 0)
(0.418312 7.44221e-08 0)
(0.418312 8.59935e-08 0)
(0.418312 8.09851e-08 0)
(0.418312 9.30936e-08 0)
(0.418312 8.85693e-08 0)
(0.418312 1.01419e-07 0)
(0.418312 9.75206e-08 0)
(0.418313 1.11284e-07 0)
(0.418313 1.0812e-07 0)
(0.418313 1.22931e-07 0)
(0.418313 1.20558e-07 0)
(0.418313 1.36489e-07 0)
(0.418313 1.34885e-07 0)
(0.418313 1.51926e-07 0)
(0.418313 1.50966e-07 0)
(0.418313 1.68984e-07 0)
(0.418313 1.68398e-07 0)
(0.418313 1.87115e-07 0)
(0.418313 1.86479e-07 0)
(0.418314 2.05451e-07 0)
(0.418314 2.04162e-07 0)
(0.418314 2.2277e-07 0)
(0.418314 2.20057e-07 0)
(0.418314 2.37534e-07 0)
(0.418314 2.32507e-07 0)
(0.418314 2.48016e-07 0)
(0.418315 2.39778e-07 0)
(0.418315 2.52557e-07 0)
(0.418315 2.4038e-07 0)
(0.418315 2.49943e-07 0)
(0.418316 2.33502e-07 0)
(0.418316 2.39876e-07 0)
(0.418316 2.19466e-07 0)
(0.418316 2.23373e-07 0)
(0.418317 2.00057e-07 0)
(0.418317 2.02988e-07 0)
(0.418317 1.78634e-07 0)
(0.418318 1.82955e-07 0)
(0.418318 1.60608e-07 0)
(0.418319 1.70577e-07 0)
(0.418319 1.565e-07 0)
(0.41832 1.81787e-07 0)
(0.41832 1.90133e-07 0)
(0.418321 2.50711e-07 0)
(0.418322 3.06468e-07 0)
(0.418322 4.30799e-07 0)
(0.418323 5.6346e-07 0)
(0.418324 7.82227e-07 0)
(0.418324 1.03216e-06 0)
(0.418324 1.41859e-06 0)
(0.418324 1.92201e-06 0)
(0.418324 2.71361e-06 0)
(0.418322 3.78555e-06 0)
(0.41832 5.15018e-06 0)
(0.418315 6.43002e-06 0)
(0.418308 7.57896e-06 0)
(0.418299 9.52684e-06 0)
(0.418286 1.37833e-05 0)
(0.418268 1.95342e-05 0)
(0.418254 2.62945e-05 0)
(0.418232 3.61777e-05 0)
(0.418198 5.02232e-05 0)
(1.01941 0.225168 0)
(1.05941 0.334869 0)
(1.02827 0.30118 0)
(0.964722 0.23596 0)
(0.896763 0.174194 0)
(0.836494 0.124734 0)
(0.787514 0.0878219 0)
(0.749725 0.0611675 0)
(0.721583 0.0422246 0)
(0.70116 0.0288831 0)
(0.68664 0.0195512 0)
(0.676503 0.0130687 0)
(0.66955 0.00860183 0)
(0.664869 0.0055543 0)
(0.661781 0.00350044 0)
(0.659791 0.00213699 0)
(0.658546 0.00124846 0)
(0.657795 0.000682693 0)
(0.657365 0.000332942 0)
(0.657138 0.000125228 0)
(0.657035 8.80639e-06 0)
(0.657004 -5.05056e-05 0)
(0.657013 -7.54293e-05 0)
(0.65704 -8.06463e-05 0)
(0.657075 -7.54923e-05 0)
(0.657109 -6.56095e-05 0)
(0.657141 -5.43409e-05 0)
(0.657167 -4.34472e-05 0)
(0.657189 -3.3824e-05 0)
(0.657207 -2.57459e-05 0)
(0.65722 -1.9248e-05 0)
(0.65723 -1.41443e-05 0)
(0.657238 -1.02538e-05 0)
(0.657243 -7.31913e-06 0)
(0.657247 -5.16628e-06 0)
(0.65725 -3.58503e-06 0)
(0.657252 -2.46167e-06 0)
(0.657254 -1.64879e-06 0)
(0.657255 -1.089e-06 0)
(0.657256 -6.83835e-07 0)
(0.657256 -4.1468e-07 0)
(0.657256 -2.1466e-07 0)
(0.657256 -8.83444e-08 0)
(0.657257 1.27168e-08 0)
(0.657257 7.14532e-08 0)
(0.657257 1.26195e-07 0)
(0.657257 1.53747e-07 0)
(0.657257 1.87032e-07 0)
(0.657257 2.00236e-07 0)
(0.657257 2.23359e-07 0)
(0.657257 2.29756e-07 0)
(0.657257 2.47714e-07 0)
(0.657257 2.50641e-07 0)
(0.657257 2.65666e-07 0)
(0.657257 2.66653e-07 0)
(0.657257 2.798e-07 0)
(0.657257 2.79617e-07 0)
(0.657257 2.91461e-07 0)
(0.657257 2.90576e-07 0)
(0.657257 3.01489e-07 0)
(0.657257 3.00221e-07 0)
(0.657257 3.10452e-07 0)
(0.657257 3.09001e-07 0)
(0.657258 3.18694e-07 0)
(0.657258 3.17199e-07 0)
(0.657258 3.26467e-07 0)
(0.657258 3.25013e-07 0)
(0.657258 3.33901e-07 0)
(0.657258 3.32524e-07 0)
(0.657258 3.41047e-07 0)
(0.657259 3.39751e-07 0)
(0.657259 3.47887e-07 0)
(0.657259 3.46648e-07 0)
(0.657259 3.5437e-07 0)
(0.657259 3.53167e-07 0)
(0.657259 3.60447e-07 0)
(0.657259 3.5926e-07 0)
(0.65726 3.66086e-07 0)
(0.65726 3.64908e-07 0)
(0.65726 3.7127e-07 0)
(0.65726 3.70102e-07 0)
(0.65726 3.76013e-07 0)
(0.65726 3.74871e-07 0)
(0.65726 3.80342e-07 0)
(0.65726 3.7924e-07 0)
(0.65726 3.84301e-07 0)
(0.65726 3.83274e-07 0)
(0.657261 3.87949e-07 0)
(0.657261 3.8702e-07 0)
(0.657261 3.91335e-07 0)
(0.657261 3.90521e-07 0)
(0.657261 3.94483e-07 0)
(0.657261 3.93786e-07 0)
(0.657261 3.97398e-07 0)
(0.657261 3.96806e-07 0)
(0.657261 4.00043e-07 0)
(0.657261 3.99524e-07 0)
(0.657261 4.02358e-07 0)
(0.657261 4.01873e-07 0)
(0.657261 4.04255e-07 0)
(0.657261 4.03749e-07 0)
(0.657261 4.05631e-07 0)
(0.657261 4.05045e-07 0)
(0.657261 4.06359e-07 0)
(0.657261 4.05621e-07 0)
(0.657261 4.0631e-07 0)
(0.657261 4.05358e-07 0)
(0.657261 4.05361e-07 0)
(0.657261 4.04134e-07 0)
(0.657261 4.03409e-07 0)
(0.657261 4.01862e-07 0)
(0.657261 4.00371e-07 0)
(0.657261 3.98469e-07 0)
(0.657261 3.96205e-07 0)
(0.657261 3.93949e-07 0)
(0.657261 3.90931e-07 0)
(0.657261 3.88352e-07 0)
(0.657261 3.84651e-07 0)
(0.657261 3.81832e-07 0)
(0.657261 3.77557e-07 0)
(0.657261 3.74628e-07 0)
(0.657261 3.69959e-07 0)
(0.657261 3.67126e-07 0)
(0.657261 3.62309e-07 0)
(0.657262 3.59843e-07 0)
(0.657262 3.55196e-07 0)
(0.657262 3.53431e-07 0)
(0.657262 3.49307e-07 0)
(0.657262 3.48603e-07 0)
(0.657262 3.45381e-07 0)
(0.657262 3.46095e-07 0)
(0.657262 3.44106e-07 0)
(0.657262 3.46519e-07 0)
(0.657262 3.45997e-07 0)
(0.657262 3.50251e-07 0)
(0.657262 3.51236e-07 0)
(0.657262 3.57254e-07 0)
(0.657262 3.59553e-07 0)
(0.657262 3.67004e-07 0)
(0.657262 3.70143e-07 0)
(0.657262 3.78413e-07 0)
(0.657262 3.81658e-07 0)
(0.657262 3.89873e-07 0)
(0.657262 3.92277e-07 0)
(0.657262 3.99406e-07 0)
(0.657262 3.99901e-07 0)
(0.657262 4.04873e-07 0)
(0.657262 4.02423e-07 0)
(0.657262 4.04263e-07 0)
(0.657262 3.98022e-07 0)
(0.657262 3.96008e-07 0)
(0.657262 3.85439e-07 0)
(0.657262 3.79221e-07 0)
(0.657262 3.64216e-07 0)
(0.657262 3.53901e-07 0)
(0.657262 3.34818e-07 0)
(0.657262 3.20976e-07 0)
(0.657262 2.98627e-07 0)
(0.657262 2.82233e-07 0)
(0.657262 2.57777e-07 0)
(0.657262 2.40089e-07 0)
(0.657262 2.14895e-07 0)
(0.657262 1.97314e-07 0)
(0.657262 1.72779e-07 0)
(0.657262 1.56644e-07 0)
(0.657262 1.34043e-07 0)
(0.657262 1.20465e-07 0)
(0.657262 1.00749e-07 0)
(0.657262 9.04547e-08 0)
(0.657262 7.41641e-08 0)
(0.657262 6.74427e-08 0)
(0.657261 5.46358e-08 0)
(0.657261 5.13012e-08 0)
(0.657261 4.15874e-08 0)
(0.657261 4.10192e-08 0)
(0.657261 3.36166e-08 0)
(0.657261 3.48824e-08 0)
(0.657261 2.87796e-08 0)
(0.657261 3.08054e-08 0)
(0.657261 2.49243e-08 0)
(0.657261 2.66599e-08 0)
(0.657261 2.00446e-08 0)
(0.657261 2.06447e-08 0)
(0.657261 1.26102e-08 0)
(0.657261 1.157e-08 0)
(0.657261 1.82899e-09 0)
(0.657261 -9.27023e-10 0)
(0.657261 -1.22296e-08 0)
(0.657261 -1.6347e-08 0)
(0.657261 -2.8652e-08 0)
(0.657261 -3.33997e-08 0)
(0.657261 -4.58331e-08 0)
(0.657261 -5.02208e-08 0)
(0.657261 -6.17134e-08 0)
(0.657261 -6.46406e-08 0)
(0.657261 -7.41062e-08 0)
(0.657261 -7.45399e-08 0)
(0.657261 -8.1036e-08 0)
(0.657261 -7.81704e-08 0)
(0.657261 -8.10709e-08 0)
(0.657261 -7.44683e-08 0)
(0.657261 -7.35451e-08 0)
(0.657261 -6.32033e-08 0)
(0.657261 -5.86954e-08 0)
(0.657261 -4.50733e-08 0)
(0.657261 -3.76604e-08 0)
(0.657261 -2.16358e-08 0)
(0.657261 -1.23801e-08 0)
(0.657261 4.84395e-09 0)
(0.657261 1.46512e-08 0)
(0.657261 3.17221e-08 0)
(0.657261 4.06957e-08 0)
(0.657261 5.62661e-08 0)
(0.657261 6.31287e-08 0)
(0.657261 7.60302e-08 0)
(0.657261 7.97457e-08 0)
(0.657261 8.90966e-08 0)
(0.657261 8.89832e-08 0)
(0.657261 9.43016e-08 0)
(0.657261 9.00863e-08 0)
(0.657261 9.12999e-08 0)
(0.657261 8.3123e-08 0)
(0.657261 8.05427e-08 0)
(0.657261 6.88705e-08 0)
(0.657261 6.30904e-08 0)
(0.657261 4.86482e-08 0)
(0.657261 4.04746e-08 0)
(0.657261 2.41316e-08 0)
(0.657261 1.44649e-08 0)
(0.657261 -2.85102e-09 0)
(0.657261 -1.3105e-08 0)
(0.657261 -3.05067e-08 0)
(0.657261 -4.05035e-08 0)
(0.657261 -5.71648e-08 0)
(0.657261 -6.61245e-08 0)
(0.657261 -8.13165e-08 0)
(0.657261 -8.85692e-08 0)
(0.657261 -1.01654e-07 0)
(0.657261 -1.0662e-07 0)
(0.657261 -1.17074e-07 0)
(0.657261 -1.19282e-07 0)
(0.657261 -1.26671e-07 0)
(0.657261 -1.25747e-07 0)
(0.657261 -1.29782e-07 0)
(0.657261 -1.25513e-07 0)
(0.657261 -1.26059e-07 0)
(0.657261 -1.18411e-07 0)
(0.657261 -1.15561e-07 0)
(0.657261 -1.04745e-07 0)
(0.657261 -9.88478e-08 0)
(0.657261 -8.53427e-08 0)
(0.657261 -7.70374e-08 0)
(0.657261 -6.1624e-08 0)
(0.657261 -5.18187e-08 0)
(0.657261 -3.55323e-08 0)
(0.657261 -2.53754e-08 0)
(0.657261 -9.4213e-09 0)
(0.657261 -1.69125e-10 0)
(0.657261 1.4179e-08 0)
(0.657261 2.12723e-08 0)
(0.657261 3.2819e-08 0)
(0.657261 3.66642e-08 0)
(0.657261 4.44388e-08 0)
(0.657261 4.42241e-08 0)
(0.657262 4.75897e-08 0)
(0.657262 4.29003e-08 0)
(0.657262 4.16419e-08 0)
(0.657262 3.2491e-08 0)
(0.657262 2.68211e-08 0)
(0.657262 1.36481e-08 0)
(0.657262 4.16871e-09 0)
(0.657262 -1.22505e-08 0)
(0.657262 -2.46474e-08 0)
(0.657262 -4.32885e-08 0)
(0.657262 -5.75259e-08 0)
(0.657262 -7.72557e-08 0)
(0.657262 -9.22076e-08 0)
(0.657262 -1.11895e-07 0)
(0.657262 -1.26496e-07 0)
(0.657262 -1.45133e-07 0)
(0.657262 -1.58476e-07 0)
(0.657262 -1.75233e-07 0)
(0.657262 -1.86611e-07 0)
(0.657262 -2.00884e-07 0)
(0.657262 -2.09811e-07 0)
(0.657261 -2.21222e-07 0)
(0.657261 -2.27444e-07 0)
(0.657261 -2.35842e-07 0)
(0.657261 -2.39303e-07 0)
(0.657261 -2.447e-07 0)
(0.657261 -2.45488e-07 0)
(0.657261 -2.48039e-07 0)
(0.657261 -2.46356e-07 0)
(0.657261 -2.46297e-07 0)
(0.657261 -2.42412e-07 0)
(0.657261 -2.40043e-07 0)
(0.657261 -2.34263e-07 0)
(0.657261 -2.29895e-07 0)
(0.657261 -2.22525e-07 0)
(0.657261 -2.16468e-07 0)
(0.657261 -2.07799e-07 0)
(0.657261 -2.00335e-07 0)
(0.657261 -1.9063e-07 0)
(0.657261 -1.82021e-07 0)
(0.657261 -1.71516e-07 0)
(0.657261 -1.61987e-07 0)
(0.657261 -1.50883e-07 0)
(0.657261 -1.40633e-07 0)
(0.657261 -1.29104e-07 0)
(0.657261 -1.18301e-07 0)
(0.65726 -1.06496e-07 0)
(0.65726 -9.52997e-08 0)
(0.65726 -8.33575e-08 0)
(0.65726 -7.19043e-08 0)
(0.65726 -5.9944e-08 0)
(0.65726 -4.83634e-08 0)
(0.65726 -3.64956e-08 0)
(0.65726 -2.49007e-08 0)
(0.65726 -1.32238e-08 0)
(0.65726 -1.72616e-09 0)
(0.65726 9.6687e-09 0)
(0.65726 2.0979e-08 0)
(0.65726 3.20241e-08 0)
(0.65726 4.30732e-08 0)
(0.65726 5.37223e-08 0)
(0.65726 6.44701e-08 0)
(0.65726 7.47099e-08 0)
(0.65726 8.5141e-08 0)
(0.65726 9.49919e-08 0)
(0.65726 1.05141e-07 0)
(0.65726 1.14677e-07 0)
(0.65726 1.24625e-07 0)
(0.657261 1.33969e-07 0)
(0.657261 1.43855e-07 0)
(0.657261 1.53188e-07 0)
(0.657261 1.63195e-07 0)
(0.657261 1.72741e-07 0)
(0.657261 1.83107e-07 0)
(0.657261 1.93142e-07 0)
(0.657261 2.04142e-07 0)
(0.657261 2.14967e-07 0)
(0.657261 2.26902e-07 0)
(0.657261 2.38836e-07 0)
(0.657261 2.51994e-07 0)
(0.657262 2.65337e-07 0)
(0.657262 2.79976e-07 0)
(0.657262 2.94978e-07 0)
(0.657262 3.11276e-07 0)
(0.657262 3.28084e-07 0)
(0.657262 3.46101e-07 0)
(0.657262 3.64714e-07 0)
(0.657263 3.84314e-07 0)
(0.657263 4.04506e-07 0)
(0.657263 4.25311e-07 0)
(0.657263 4.46582e-07 0)
(0.657264 4.67902e-07 0)
(0.657264 4.89431e-07 0)
(0.657264 5.10244e-07 0)
(0.657264 5.30853e-07 0)
(0.657265 5.49767e-07 0)
(0.657265 5.67945e-07 0)
(0.657265 5.8329e-07 0)
(0.657265 5.97309e-07 0)
(0.657266 6.07279e-07 0)
(0.657266 6.15411e-07 0)
(0.657267 6.1836e-07 0)
(0.657267 6.19217e-07 0)
(0.657267 6.14032e-07 0)
(0.657268 6.06996e-07 0)
(0.657268 5.93581e-07 0)
(0.657269 5.7926e-07 0)
(0.657269 5.58923e-07 0)
(0.65727 5.39518e-07 0)
(0.65727 5.15425e-07 0)
(0.657271 4.95362e-07 0)
(0.657272 4.7362e-07 0)
(0.657273 4.61526e-07 0)
(0.657273 4.54536e-07 0)
(0.657274 4.68364e-07 0)
(0.657275 5.01891e-07 0)
(0.657276 5.77919e-07 0)